! Touchstone file exported from HFSS 2021.1.0
!        File:           C:/Users/BRAIN/Documents/Ansoft/channel_design_220214.aedt
!        Generated:      6:37:35 %xC624%xD6C4  2 15, 2022
!        Design:         HFSSDesign2
!        Project:        channel_design_220214
!        Setup:          Setup1
!        Solution:       Sweep
!
! Variables:
!        dis = 8mil
!        l_channel = 4in
!        t_channel = 18um
!        t_di = 4.5mil
!        w_channel = 8mil
!        w_di = 50mil
!
# GHz S RI R 50.000000
! Terminal data exported
! Port[1] = trace1_T1
! Port[2] = trace2_T1
! Port[3] = trace1_T2
! Port[4] = trace2_T2
0.1                            -0.0179619940812119 -0.0542854171375938 0.0106752100448158 0.020118792080541601 0.87483489387070301 -0.44373577400665798 -0.0022916612584133302 -0.00495740798363648 
                               0.0106752100448158 0.020118792080541601 -0.018086055133246199 -0.054623552099985498 -0.0022922272389135599 -0.0049558839045567198 0.87472608197960899 -0.44386091596320398 
                               0.87483489387070301 -0.44373577400665798 -0.0022922272389137902 -0.0049558839045567901 -0.018043320507550999 -0.054237132767043297 0.010673886718033499 0.020119921222219998 
                               -0.0022916612584130401 -0.0049574079836365399 0.87472608197960899 -0.44386091596320398 0.0106738867180341 0.020119921222219801 -0.018229909886118299 -0.054526476677771503 
! Gamma         0                0                0                0                0                0                0                0                
! Port Impedance         50               0                50               0                50               0                50               0                
0.15                           -0.045411017221776949 -0.067329584761713301 0.020758097565750349 0.024862678606474696 0.74484653527117506 -0.62774892416630879 -0.0047021286434298466 -0.0074199958944955267 
                               0.020758097565751008 0.024862678606475293 -0.045682166383898014 -0.067772592096188938 -0.0047017385339259308 -0.007416404890311647 0.74464905958979222 -0.62787946623958624 
                               0.74484653527117728 -0.62774892416631789 -0.0047017385339272778 -0.0074164048903118786 -0.045564547992390479 -0.067184128634523457 0.020757163086096434 0.02486734841939817 
                               -0.0047021286434293236 -0.0074199958944956811 0.74464905958979133 -0.62787946623958191 0.020757163086096726 0.024867348419397979 -0.045946298760002759 -0.067497284145207934 
! Gamma         0                0                0                0                0                0                0                0                
! Port Impedance         50               0                50               0                50               0                50               0                
0.2                            -0.07573187002185168 -0.067864429114146974 0.031588685501020661 0.024907483238709668 0.57863177237229602 -0.7742135601350526 -0.0086266884682141866 -0.0092405536969453403 
                               0.031588685501021042 0.024907483238709786 -0.076171886086169066 -0.068352712740844174 -0.0086231296039790632 -0.009235256039858716 0.57834867776537313 -0.77430401267050419 
                               0.57863177237229513 -0.77421356013505405 -0.0086231296039793251 -0.0092352560398589155 -0.075938925604072005 -0.067551452301790063 0.031592130238354492 0.024917560750378404 
                               -0.0086266884682141137 -0.0092405536969453871 0.57834867776537424 -0.77430401267050308 0.031592130238354409 0.024917560750378504 -0.076514667268327119 -0.067783573048016313 
! Gamma         0                0                0                0                0                0                0                0                
! Port Impedance         50               0                50               0                50               0                50               0                
0.25                           -0.10360211562299924 -0.055929312268705553 0.041193125906862277 0.020599274034251037 0.38682787227646692 -0.87749129667708403 -0.014014572204585558 -0.0095804124494753805 
                               0.041193125906862048 0.020599274034251321 -0.10420864157451226 -0.05640412470799986 -0.014005895049532953 -0.0095755302747254651 0.38648223707725615 -0.87750602284286394 
                               0.38682787227646898 -0.87749129667708314 -0.014005895049532754 -0.0095755302747262717 -0.1038064620277257 -0.05538083544771924 0.041207639118021236 0.020614078797557049 
                               -0.014014572204585516 -0.0095804124494750717 0.38648223707725599 -0.87750602284286461 0.04120763911802118 0.0206140787975575 -0.10452614827883669 -0.055438667785454088 
! Gamma         0                0                0                0                0                0                0                0                
! Port Impedance         50               0                50               0                50               0                50               0                
0.3                            -0.12420057585038745 -0.033785188643649183 0.048049137682237189 0.012961650370794685 0.18005631508694772 -0.93469543991682524 -0.020299123105959656 -0.007566328896851356 
                               0.048049137682237029 0.012961650370795179 -0.12495092834502468 -0.034197776001323177 -0.020284793510190822 -0.0075654541110441636 0.17968143855274588 -0.93461560233490515 
                               0.18005631508694867 -0.93469543991682535 -0.02028479351019076 -0.0075654541110448349 -0.1243101131398239 -0.032949367133447087 0.048082781063911832 0.01297582377509587 
                               -0.020299123105959403 -0.0075663288968510828 0.17968143855274568 -0.93461560233490515 0.048082781063911943 0.012975823775096309 -0.12508535333090687 -0.032770650068775435 
! Gamma         0                0                0                0                0                0                0                0                
! Port Impedance         50               0                50               0                50               0                50               0                
0.35                           -0.13416946309068581 -0.0054431258525503923 0.051211300672035671 0.0034097674203243107 -0.031517225653926895 -0.94508271796021048 -0.026411010908432533 -0.0026243566595273481 
                               0.051211300672035748 0.0034097674203244751 -0.13502743160995065 -0.0057610016728731513 -0.026392827993728298 -0.0026315752098285592 -0.031888397181298996 -0.94490626925271215 
                               -0.031517225653928276 -0.94508271796020982 -0.026392827993728066 -0.002631575209828734 -0.13406036430390061 -0.0042983073516346774 0.051270787568485743 0.0034118491356705622 
                               -0.02641101090843229 -0.0026243566595273321 -0.03188839718129808 -0.94490626925271215 0.051270787568485778 0.0034118491356707717 -0.13478101952794677 -0.0038642892031081331 
! Gamma         0                0                0                0                0                0                0                0                
! Port Impedance         50               0                50               0                50               0                50               0                
0.4                            -0.13216481124230803 0.024177506632613317 0.050326713059538182 -0.0064793705220657326 -0.23829711081347094 -0.90960481704867846 -0.03099734714757451 0.0052524954728024893 
                               0.050326713059538224 -0.0064793705220658427 -0.13308857002791508 0.023967654989566947 -0.030979666292768659 0.0052340814370052825 -0.23863955197713838 -0.90934101243058307 
                               -0.23829711081347205 -0.90960481704867679 -0.030979666292768267 0.0052340814370051602 -0.13169096030498953 0.025609254407082838 0.050413724150387432 -0.0065067666814223541 
                               -0.030997347147574409 0.0052524954728024468 -0.2386395519771376 -0.90934101243058385 0.050413724150387265 -0.0065067666814222439 -0.13224392092051754 0.026268700820093166 
! Gamma         0                0                0                0                0                0                0                0                
! Port Impedance         50               0                50               0                50               0                50               0                
0.45                           -0.11897104737671176 0.050171752591148276 0.045615527631301313 -0.01514113856292936 -0.43122512633085969 -0.8306731845347517 -0.032755090711144644 0.015406461613953927 
                               0.0456155276313015 -0.015141138562929295 -0.11992106161384491 0.050063912405094703 -0.032744147212378318 0.015376206449830071 -0.43152412876147755 -0.83033457502204455 
                               -0.43122512633085947 -0.83067318453475159 -0.032744147212378352 0.015376206449829862 -0.11797821667770891 0.05181397893075005 0.04572305807749924 -0.015218998379452722 
                               -0.03275509071114454 0.015406461613953936 -0.43152412876147789 -0.830334575022044 0.045723058077499053 -0.015218998379452625 -0.11826626454368901 0.052621701962608999 
! Gamma         0                0                0                0                0                0                0                0                
! Port Impedance         50               0                50               0                50               0                50               0                
0.5                            -0.097254581423410216 0.068486678612404539 0.037846319734571233 -0.021183745207186137 -0.60175615680804784 -0.71214000682956724 -0.030764584952937078 0.02660804588233984 
                               0.037846319734571886 -0.021183745207185946 -0.098201282945350882 0.068457774536076724 -0.030767050760127992 0.026568744393014019 -0.60200434078650333 -0.71173535325338733 
                               -0.60175615680804806 -0.71214000682956857 -0.030767050760128416 0.026568744393014057 -0.095598807518784149 0.070201675305976721 0.037956325726339862 -0.02133225847098421 
                               -0.030764584952936998 0.02660804588233982 -0.60200434078650333 -0.71173535325338644 0.037956325726339779 -0.021332258470984231 -0.095558430916100306 0.071040711433394507 
! Gamma         0                0                0                0                0                0                0                0                
! Port Impedance         50               0                50               0                50               0                50               0                
0.55                           -0.071035595802693099 0.076581915071271905 0.028284814820291802 -0.023571667728886501 -0.741977170440554 -0.55942220166847101 -0.0247302834198973 0.037307651701191699 
                               0.028284814820291999 -0.0235716677288864 -0.071966472150506694 0.076596857649705904 -0.024751362937045 0.037265689756260503 -0.74216775948751801 -0.55895326319474103 
                               -0.741977170440554 -0.55942220166847101 -0.024751362937045 0.037265689756260399 -0.068605569275094494 0.078169605748970694 0.028368328257785499 -0.023804611980248601 
                               -0.024730283419897501 0.037307651701191803 -0.74216775948751801 -0.55895326319474103 0.028368328257785499 -0.023804611980248601 -0.068222167271113604 0.078896932417002297 
! Gamma         0                0                0                0                0                0                0                0                
! Port Impedance         50               0                50               0                50               0                50               0                
0.6                            -0.044946760788621046 0.073839591686119185 0.018565210180494906 -0.021828552729041339 -0.8449408390602049 -0.37963123024430762 -0.015058264694398808 0.045980038989593963 
                               0.018565210180492783 -0.021828552729039743 -0.045871655318219101 0.073859519969031451 -0.015099782286929177 0.045944480693042231 -0.84506027528354999 -0.37909502426466707 
                               -0.84494083906020001 -0.37963123024430445 -0.015099782286928532 0.045944480693040517 -0.041688174689552916 0.075044765059709723 0.01858548080048792 -0.022148008072255285 
                               -0.01505826469439934 0.045980038989594678 -0.84506027528355288 -0.37909502426467023 0.018585480800488424 -0.02214800807225482 -0.041006217865170412 0.075511069241379777 
! Gamma         0                0                0                0                0                0                0                0                
! Port Impedance         50               0                50               0                50               0                50               0                
0.65                           -0.023368501589263825 0.061645437436069109 0.010444991584643921 -0.016202565223260187 -0.90519230336072765 -0.18155067886824242 -0.0027361156447772653 0.051457784910731302 
                               0.010444991584639796 -0.016202565223253678 -0.024321276990453521 0.061638682939503787 -0.0027952328638479349 0.051438416329758159 -0.90521584919265752 -0.18094674198305363 
                               -0.90519230336071366 -0.18155067886824078 -0.0027952328638479332 0.051438416329754051 -0.019306771890778521 0.062174309312359045 0.010363123933505261 -0.01659571975654104 
                               -0.0027361156447776569 0.051457784910732871 -0.90521584919266684 -0.18094674198305755 0.010363123933507259 -0.016595719756540239 -0.018431973793276143 0.062248162709106977 
! Gamma         0                0                0                0                0                0                0                0                
! Port Impedance         50               0                50               0                50               0                50               0                
0.7                            -0.0095844836974605403 0.043084379724474077 0.0054602539865632226 -0.0077052261150891916 -0.91937357205708481 0.024661181137383709 0.010945760365233414 0.053134547457890063 
                               0.0054602539865612485 -0.0077052261150776132 -0.01061938757847119 0.043038363322887345 0.010876590622675077 0.053139363873578177 -0.91926677289052861 0.025321265659974314 
                               -0.91937357205706571 0.024661181137380389 0.010876590622673252 0.053139363873573355 -0.0048425776568892095 0.042629891721254289 0.0052417287829798279 -0.008144377882247044 
                               0.010945760365233724 0.053134547457891958 -0.91926677289054259 0.025321265659973936 0.0052417287829833346 -0.0081443778822471533 -0.0039336081811642094 0.042222792405574402 
! Gamma         0                0                0                0                0                0                0                0                
! Port Impedance         50               0                50               0                50               0                50               0                
0.75                           -0.0051464389635078652 0.022271763316341904 0.0045708373052160004 0.0020412103229288069 -0.88672869015849631 0.2280786516635942 0.024715324357187974 0.050969906342706699 
                               0.0045708373052178782 0.0020412103229363212 -0.0063286351421804488 0.022202961665878256 0.024647015897138358 0.05100289274132562 -0.88645537141195307 0.22876370277609656 
                               -0.88672869015848643 0.22807865166358787 0.024647015897136325 0.051002892741323511 4.538250631386868E-05 0.020546789416175909 0.004190972103825275 0.0015956325839448292 
                               0.024715324357188619 0.050969906342707594 -0.88645537141196062 0.22876370277609906 0.004190972103827577 0.0015956325839437872 0.00079610158814204203 0.019633795551072482 
! Gamma         0                0                0                0                0                0                0                0                
! Port Impedance         50               0                50               0                50               0                50               0                
0.8                            -0.0096194524194120386 0.0034553717364951778 0.0079187149440084845 0.01113397590723147 -0.8093351565649346 0.41784589648463122 0.03755309106298696 0.045325641293863059 
                               0.0079187149440012143 0.01113397590722128 -0.011010978816924621 0.0034142399615941545 0.037497655657808396 0.045385566859282349 -0.80886970959223936 0.41850358802559023 
                               -0.80933515656494426 0.41784589648464476 0.037497655657811498 0.045385566859284833 -0.0043122411927686392 0.00023152943282038176 0.00736575245713573 0.010728659784650941 
                               0.037553091062986321 0.045325641293862087 -0.80886970959222926 0.41850358802558235 0.0073657524571336674 0.010728659784653819 -0.003918725194382168 -0.0011379527892008828 
! Gamma         0                0                0                0                0                0                0                0                
! Port Impedance         50               0                50               0                50               0                50               0                
0.85                           -0.020779454902785374 -0.0098903724285594741 0.014785195464762074 0.017802184874828542 -0.69196219965021155 0.58406984897880232 0.048772501039287368 0.036733622014558209 
                               0.014785195464717304 0.017802184874802018 -0.022423747319819741 -0.0098216180655949364 0.048740574731730192 0.036814039608540183 -0.69130166023062123 0.58463302141624773 
                               -0.69196219965022843 0.5840698489788656 0.048740574731744236 0.036814039608544465 -0.015775726687654451 -0.014745456705304154 0.014060765676003898 0.017486100465471041 
                               0.048772501039283461 0.036733622014556024 -0.69130166023059503 0.58463302141620488 0.014060765676000557 0.017486100465486591 -0.015915721118573804 -0.016449685452727181 
! Gamma         0                0                0                0                0                0                0                0                
! Port Impedance         50               0                50               0                50               0                50               0                
0.9                            -0.03519899174585514 -0.015755236719604077 0.023750633086174942 0.020780970252586153 -0.54157755444277045 0.71856521293537789 0.057959661569150826 0.025694584231947645 
                               0.023750633086078322 0.020780970252573722 -0.037108071550214783 -0.01547174485060583 0.057958308603209573 0.025784783400679787 -0.54074864917749177 0.71896467926095919 
                               -0.54157755444276245 0.71856521293549624 0.057958308603234678 0.025784783400679176 -0.030968187791891505 -0.022253112019674365 0.022868250392101032 0.020601901104021197 
                               0.057959661569143291 0.025694584231946409 -0.54074864917747745 0.71896467926087149 0.022868250392107773 0.020601901104051037 -0.031770904369695568 -0.024111298281681473 
! Gamma         0                0                0                0                0                0                0                0                
! Port Impedance         50               0                50               0                50               0                50               0                
0.95                           -0.049059148966184955 -0.013926022348936438 0.032998173736733936 0.019563275858968221 -0.36663766513837248 0.81530019956191535 0.064825106950005942 0.012561863929727883 
                               0.032998173736631158 0.019563275858997309 -0.051206521144639777 -0.013313370352053754 0.064855959926619827 0.012648529246975692 -0.36569581565364195 0.81548000507911855 
                               -0.36663766513832263 0.81530019956203248 0.064855959926644377 0.012648529246967116 -0.046086769717569837 -0.02195006416401744 0.031981256408394262 0.01956664976953618 
                               0.064825106949998268 0.012561863929729144 -0.36569581565365833 0.81548000507902396 0.031981256408415024 0.01956664976956321 -0.047618195149207065 -0.023741693052229364 
! Gamma         0                0                0                0                0                0                0                0                
! Port Impedance         50               0                50               0                50               0                50               0                
1                              -0.059000803622169397 -0.0059201030324416504 0.040690673824837501 0.014493720132646 -0.17635199999021201 0.87049943910402705 0.069013753346350501 -0.0024726679854428701 
                               0.040690673824837403 0.014493720132645899 -0.061319938093046998 -0.0048671474961058401 0.069071386504252 -0.0024028894409767001 -0.17537225262041201 0.87042963721905398 
                               -0.17635199999021201 0.87049943910402705 0.069071386504252194 -0.0024028894409767101 -0.0577662303329892 -0.0152245020409631 0.039572340286709203 0.014723455700406099 
                               0.069013753346350598 -0.0024726679854430301 -0.17537225262041201 0.87042963721905398 0.039572340286709098 0.014723455700406399 -0.060019906316787101 -0.016709645577242999 
! Gamma         0                0                0                0                0                0                0                0                
! Port Impedance         50               0                50               0                50               0                50               0                
1.05                           -0.062979910202165354 0.0051360255190204896 0.045342414382332011 0.0067615511217211204 0.019871075861074155 0.88206565806563408 0.070113952029254134 -0.018836973273316578 
                               0.045342414382331872 0.0067615511217217492 -0.065360331263808441 0.006718206631300197 0.070195607330736945 -0.018791173969478894 0.02081149391614863 0.88174744403764937 
                               0.019871075861074682 0.88206565806563442 0.07019560733073725 -0.018791173969479484 -0.063895378867203076 -0.0050267434765123792 0.044166664593649305 0.0072558470873733951 
                               0.070113952029254453 -0.018836973273317365 0.02081149391612639 0.8817474440376506 0.044166664593647896 0.0072558470873731488 -0.066779758894601499 -0.0059769533460955039 
! Gamma         0                0                0                0                0                0                0                0                
! Port Impedance         50               0                50               0                50               0                50               0                
1.1                            -0.060247262583082759 0.016910625429323284 0.046234411291528242 -0.0024384326805106903 0.21220398341132118 0.85080446711316937 0.066900367828104698 -0.036151720466118295 
                               0.046234411291528422 -0.0024384326805099079 -0.062549242373858893 0.0190889691432998 0.066992616374500255 -0.036137737205178357 0.21303173160425215 0.85027030735330045 
                               0.21220398341132188 0.8508044671131697 0.066992616374500435 -0.036137737205179439 -0.063619762091859419 0.0064175374931517495 0.045065741819292446 -0.0016460795454346219 
                               0.066900367828104573 -0.03615172046611944 0.21303173160422595 0.85027030735331055 0.045065741819290482 -0.0016460795454342986 -0.066986075243137294 0.0061985308193242411 
! Gamma         0                0                0                0                0                0                0                0                
! Port Impedance         50               0                50               0                50               0                50               0                
1.15                           -0.051203072455469748 0.025896525653024059 0.042957926799198534 -0.011314437167962023 0.391881199055443 0.77881812696582831 0.05890505644490928 -0.053056913526287316 
                               0.042957926799199686 -0.011314437167961435 -0.053256811625010413 0.028695114561607067 0.058992365131286105 -0.053074542436238201 0.39254756232223031 0.77812316530894632 
                               0.39188119905544355 0.77881812696582808 0.058992365131285737 -0.053074542436239366 -0.0572054668426899 0.015695777178752427 0.041874069698772803 -0.010208435672133455 
                               0.058905056444908628 -0.053056913526288364 0.39254756232221122 0.77812316530896175 0.041874069698771228 -0.010208435672132478 -0.060846770988329933 0.016359816408743632 
! Gamma         0                0                0                0                0                0                0                0                
! Port Impedance         50               0                50               0                50               0                50               0                
1.2                            -0.037942978092479929 0.029265573713711423 0.035971242681399992 -0.01802460192577398 0.5506308051394303 0.66981819866875691 0.046196973858309266 -0.068004664765641806 
                               0.035971242681400811 -0.018024601925774084 -0.039564195156897103 0.032653955288128478 0.046266912777367712 -0.068045803839580754 0.55111726531324046 0.66902457681190319 
                               0.55063080513943097 0.66981819866875669 0.046266912777366963 -0.068045803839581531 -0.046584422757224575 0.020041817848465576 0.03505755509917844 -0.016611808331577976 
                               0.04619697385830826 -0.068004664765642431 0.55111726531323091 0.66902457681191796 0.035057555099177642 -0.016611808331576775 -0.050247820629929253 0.021677929656645858 
! Gamma         0                0                0                0                0                0                0                0                
! Port Impedance         50               0                50               0                50               0                50               0                
1.25                           -0.02362573570257704 0.025567505467404161 0.026536135379273448 -0.021093384922412695 0.68094961284759459 0.52917613193635538 0.029436102579679699 -0.079523080336032281 
                               0.026536135379274073 -0.021093384922413035 -0.024635077056448663 0.029455492670675369 0.029483272199240466 -0.079575401268638046 0.68126477264982588 0.52833716564356525 
                               0.6809496128475947 0.52917613193635527 0.029483272199239768 -0.079575401268638227 -0.034729302424460519 0.018022246314052363 0.025878508541127245 -0.019405854973658505 
                               0.029436102579678936 -0.079523080336032254 0.6812647726498231 0.52833716564357491 0.025878508541127158 -0.019405854973657682 -0.038136320096583222 0.020641050808317983 
! Gamma         0                0                0                0                0                0                0                0                
! Port Impedance         50               0                50               0                50               0                50               0                
1.3                            -0.011675096005494601 0.014980237524500038 0.016467538597583733 -0.019745360279521899 0.77651129589168455 0.36389276631267081 0.0097776887009472929 -0.086469702170719975 
                               0.016467538597583736 -0.019745360279522416 -0.011918774476661903 0.01921983243258606 0.0098040379486915626 -0.086521849120807584 0.77668014797714058 0.36304134520259518 
                               0.77651129589168455 0.3638927663126707 0.0098040379486912816 -0.086521849120807459 -0.02487007646317552 0.0097773234388670669 0.016144211002797663 -0.017840621795021702 
                               0.0097776887009470188 -0.086469702170719823 0.77668014797714091 0.36304134520259906 0.016144211002797733 -0.017840621795021501 -0.027743649343360842 0.013303577075433439 
! Gamma         0                0                0                0                0                0                0                0                
! Port Impedance         50               0                50               0                50               0                50               0                
1.35                           -0.0050411075057664014 -0.00081310757125793156 0.0077602989352957953 -0.014086732049635583 0.83264721506542794 0.18239276230902457 -0.011329360862300318 -0.088187529128437969 
                               0.0077602989352954311 -0.01408673204963545 -0.004410516032988243 0.0035815011666295651 -0.011317665459159623 -0.08823255742850844 0.83269595925992745 0.18153749548520506 
                               0.83264721506542794 0.18239276230902457 -0.011317665459159574 -0.088232557428508399 -0.019773572535083626 -0.0031045579409333299 0.0078336838831049443 -0.012044795299789763 
                               -0.011329360862300172 -0.088187529128437997 0.83269595925992779 0.18153749548520537 0.0078336838831049149 -0.012044795299789792 -0.021866946574267257 0.0011714849540144304 
! Gamma         0                0                0                0                0                0                0                0                