! Touchstone file exported from HFSS 2021.1.0
!        File:           C:/Users/BRAIN/Documents/Ansoft/channel_design_220214.aedt
!        Generated:      6:37:35 %xC624%xD6C4  2 15, 2022
!        Design:         HFSSDesign2
!        Project:        channel_design_220214
!        Setup:          Setup1
!        Solution:       Sweep
! Variables:
!        dis = 8mil
!        l_channel = 4in
!        t_channel = 18um
!        t_di = 4.5mil
!        w_channel = 8mil
!        w_di = 50mil
!
!Created with skrf (http://scikit-rf.org).
# GHz S RI R 50.0 
! Port[1] = trace1_T1
! Port[2] = trace2_T1
! Port[3] = trace1_T2
! Port[4] = trace2_T2
!freq ReS11 ImS11 ReS12 ImS12 ReS13 ImS13
! ReS14 ImS14
! ReS21 ImS21 ReS22 ImS22 ReS23 ImS23
! ReS24 ImS24
! ReS31 ImS31 ReS32 ImS32 ReS33 ImS33
! ReS34 ImS34
! ReS41 ImS41 ReS42 ImS42 ReS43 ImS43
! ReS44 ImS44
!
0.0 0.0 0.0 0.0 0.0 1.0 0.0 0.0 0.0
 0.0 0.0 0.0 0.0 0.0 0.0 1.0 0.0
 1.0 0.0 0.0 0.0 0.0 0.0 0.0 0.0
 0.0 0.0 1.0 0.0 0.0 0.0 0.0 0.0
0.05 -0.00035830489603970775 -0.030946262035300272 0.003167622793180422 0.011476072579656894 0.9618073223306697 -0.23122068679330351 -0.0009200687022720053 -0.00234776397765625
 0.0031676227931797655 0.01147607257965611 -0.00038316303177450724 -0.031131812661141546 -0.0009203519000634693 -0.002347689859175065 0.9617706419111207 -0.23129961724512513
 0.9618073223306657 -0.23122068679329194 -0.0009203519000621773 -0.00234768985917488 -0.0003790334935186233 -0.030940060253157098 0.003167405429702324 0.011475740592710669
 -0.0009200687022721993 -0.0023477639776562018 0.9617706419111224 -0.23129961724513035 0.0031674054297028877 0.011475740592710611 -0.0004210381009282231 -0.031117356194652036
0.1 -0.0179619940812119 -0.0542854171375938 0.0106752100448158 0.0201187920805416 0.874834893870703 -0.443735774006658 -0.00229166125841333 -0.00495740798363648
 0.0106752100448158 0.0201187920805416 -0.0180860551332462 -0.0546235520999855 -0.00229222723891356 -0.00495588390455672 0.874726081979609 -0.443860915963204
 0.874834893870703 -0.443735774006658 -0.00229222723891379 -0.00495588390455679 -0.018043320507551 -0.0542371327670433 0.0106738867180335 0.02011992122222
 -0.00229166125841304 -0.00495740798363654 0.8747260819796091 -0.443860915963204 0.0106738867180341 0.0201199212222198 -0.0182299098861183 -0.0545264766777715
0.15 -0.045411017221776956 -0.0673295847617133 0.02075809756575035 0.024862678606474696 0.7448465352711751 -0.6277489241663088 -0.004702128643429847 -0.007419995894495527
 0.02075809756575101 0.024862678606475293 -0.045682166383898014 -0.06777259209618894 -0.004701738533925931 -0.007416404890311648 0.7446490595897921 -0.6278794662395862
 0.7448465352711773 -0.6277489241663179 -0.004701738533927278 -0.007416404890311878 -0.04556454799239048 -0.06718412863452346 0.020757163086096438 0.02486734841939817
 -0.004702128643429324 -0.007419995894495681 0.7446490595897912 -0.6278794662395819 0.020757163086096726 0.02486734841939798 -0.04594629876000276 -0.06749728414520793
0.2 -0.07573187002185168 -0.06786442911414697 0.03158868550102066 0.024907483238709668 0.5786317723722959 -0.7742135601350526 -0.008626688468214187 -0.00924055369694534
 0.03158868550102104 0.02490748323870979 -0.07617188608616907 -0.06835271274084417 -0.008623129603979063 -0.009235256039858714 0.5783486777653732 -0.7743040126705042
 0.5786317723722952 -0.7742135601350542 -0.008623129603979325 -0.009235256039858915 -0.075938925604072 -0.06755145230179006 0.03159213023835449 0.024917560750378404
 -0.008626688468214114 -0.009240553696945385 0.5783486777653742 -0.7743040126705031 0.03159213023835441 0.024917560750378504 -0.07651466726832712 -0.06778357304801631
0.25 -0.10360211562299926 -0.05592931226870555 0.041193125906862284 0.020599274034251033 0.386827872276467 -0.877491296677084 -0.01401457220458556 -0.00958041244947538
 0.04119312590686205 0.020599274034251325 -0.10420864157451226 -0.05640412470799987 -0.014005895049532953 -0.009575530274725465 0.38648223707725615 -0.8775060228428638
 0.38682787227646903 -0.8774912966770831 -0.014005895049532754 -0.009575530274726272 -0.1038064620277257 -0.05538083544771924 0.041207639118021236 0.02061407879755705
 -0.014014572204585516 -0.009580412449475072 0.38648223707725604 -0.8775060228428646 0.04120763911802119 0.0206140787975575 -0.10452614827883669 -0.05543866778545409
0.3 -0.12420057585038745 -0.03378518864364918 0.04804913768223719 0.012961650370794685 0.18005631508694772 -0.9346954399168252 -0.02029912310595966 -0.007566328896851356
 0.048049137682237036 0.01296165037079518 -0.12495092834502469 -0.03419777600132318 -0.020284793510190822 -0.007565454111044164 0.17968143855274588 -0.934615602334905
 0.18005631508694867 -0.9346954399168252 -0.02028479351019076 -0.007565454111044835 -0.12431011313982389 -0.03294936713344709 0.048082781063911825 0.012975823775095869
 -0.020299123105959403 -0.007566328896851084 0.1796814385527457 -0.934615602334905 0.04808278106391194 0.01297582377509631 -0.12508535333090687 -0.03277065006877544
0.35 -0.1341694630906858 -0.005443125852550393 0.051211300672035664 0.003409767420324311 -0.031517225653926895 -0.9450827179602106 -0.026411010908432533 -0.0026243566595273485
 0.05121130067203575 0.0034097674203244746 -0.13502743160995068 -0.005761001672873151 -0.0263928279937283 -0.0026315752098285596 -0.03188839718129899 -0.9449062692527121
 -0.031517225653928276 -0.9450827179602099 -0.026392827993728066 -0.0026315752098287344 -0.13406036430390061 -0.004298307351634679 0.051270787568485736 0.0034118491356705622
 -0.02641101090843229 -0.0026243566595273325 -0.03188839718129808 -0.9449062692527123 0.051270787568485784 0.003411849135670772 -0.13478101952794677 -0.0038642892031081344
0.4 -0.13216481124230803 0.024177506632613317 0.05032671305953819 -0.006479370522065733 -0.23829711081347094 -0.9096048170486785 -0.030997347147574517 0.005252495472802489
 0.05032671305953823 -0.006479370522065844 -0.13308857002791508 0.023967654989566944 -0.030979666292768656 0.0052340814370052825 -0.23863955197713838 -0.909341012430583
 -0.23829711081347205 -0.9096048170486769 -0.030979666292768267 0.005234081437005159 -0.13169096030498953 0.025609254407082838 0.050413724150387425 -0.006506766681422353
 -0.030997347147574413 0.005252495472802447 -0.2386395519771376 -0.9093410124305839 0.05041372415038726 -0.006506766681422245 -0.13224392092051754 0.02626870082009317
0.45 -0.11897104737671174 0.05017175259114827 0.04561552763130132 -0.01514113856292936 -0.43122512633085974 -0.8306731845347517 -0.032755090711144644 0.015406461613953929
 0.0456155276313015 -0.015141138562929295 -0.11992106161384491 0.0500639124050947 -0.03274414721237832 0.01537620644983007 -0.4315241287614775 -0.8303345750220446
 -0.4312251263308595 -0.8306731845347516 -0.03274414721237835 0.015376206449829864 -0.11797821667770891 0.05181397893075005 0.04572305807749924 -0.015218998379452722
 -0.03275509071114454 0.015406461613953936 -0.43152412876147794 -0.830334575022044 0.04572305807749905 -0.015218998379452627 -0.118266264543689 0.052621701962609
0.5 -0.0972545814234102 0.06848667861240454 0.03784631973457124 -0.021183745207186137 -0.6017561568080478 -0.7121400068295671 -0.03076458495293708 0.02660804588233984
 0.037846319734571886 -0.021183745207185942 -0.09820128294535088 0.06845777453607674 -0.030767050760127992 0.026568744393014022 -0.6020043407865033 -0.7117353532533873
 -0.6017561568080481 -0.7121400068295686 -0.030767050760128416 0.02656874439301406 -0.09559880751878415 0.07020167530597672 0.03795632572633986 -0.021332258470984213
 -0.030764584952937 0.02660804588233982 -0.6020043407865033 -0.7117353532533864 0.03795632572633978 -0.02133225847098423 -0.09555843091610032 0.07104071143339452
0.55 -0.07103559580269309 0.0765819150712719 0.0282848148202918 -0.0235716677288865 -0.741977170440554 -0.5594222016684711 -0.024730283419897303 0.0373076517011917
 0.028284814820292 -0.0235716677288864 -0.07196647215050671 0.07659685764970589 -0.024751362937044996 0.0372656897562605 -0.742167759487518 -0.558953263194741
 -0.741977170440554 -0.5594222016684711 -0.024751362937044996 0.0372656897562604 -0.06860556927509448 0.07816960574897071 0.028368328257785503 -0.023804611980248604
 -0.024730283419897497 0.0373076517011918 -0.742167759487518 -0.5589532631947411 0.028368328257785503 -0.0238046119802486 -0.0682221672711136 0.0788969324170023
0.6 -0.04494676078862104 0.0738395916861192 0.018565210180494906 -0.021828552729041335 -0.8449408390602049 -0.37963123024430767 -0.015058264694398808 0.04598003898959396
 0.018565210180492783 -0.021828552729039743 -0.0458716553182191 0.07385951996903145 -0.015099782286929177 0.04594448069304223 -0.84506027528355 -0.379095024264667
 -0.8449408390602001 -0.37963123024430445 -0.015099782286928532 0.04594448069304052 -0.04168817468955291 0.07504476505970972 0.018585480800487924 -0.022148008072255285
 -0.01505826469439934 0.045980038989594685 -0.8450602752835529 -0.37909502426467023 0.018585480800488424 -0.022148008072254824 -0.04100621786517041 0.07551106924137979
0.65 -0.023368501589263825 0.06164543743606911 0.01044499158464392 -0.01620256522326019 -0.9051923033607276 -0.18155067886824242 -0.002736115644777266 0.0514577849107313
 0.010444991584639796 -0.016202565223253678 -0.02432127699045352 0.061638682939503794 -0.002795232863847935 0.051438416329758166 -0.9052158491926575 -0.18094674198305366
 -0.9051923033607137 -0.18155067886824078 -0.0027952328638479336 0.05143841632975406 -0.01930677189077852 0.062174309312359045 0.010363123933505261 -0.01659571975654104
 -0.0027361156447776574 0.05145778491073287 -0.9052158491926668 -0.18094674198305757 0.010363123933507261 -0.01659571975654024 -0.018431973793276147 0.062248162709106984
0.7 -0.00958448369746054 0.04308437972447408 0.005460253986563223 -0.0077052261150891916 -0.9193735720570848 0.024661181137383716 0.010945760365233415 0.05313454745789006
 0.0054602539865612485 -0.007705226115077614 -0.01061938757847119 0.043038363322887345 0.010876590622675077 0.05313936387357818 -0.9192667728905286 0.025321265659974314
 -0.9193735720570657 0.0246611811373804 0.010876590622673252 0.053139363873573355 -0.004842577656889209 0.04262989172125429 0.005241728782979828 -0.008144377882247044
 0.010945760365233724 0.05313454745789196 -0.9192667728905425 0.02532126565997394 0.005241728782983335 -0.008144377882247153 -0.0039336081811642085 0.0422227924055744
0.75 -0.005146438963507865 0.022271763316341904 0.004570837305216001 0.002041210322928807 -0.8867286901584963 0.2280786516635942 0.024715324357187977 0.050969906342706706
 0.004570837305217878 0.002041210322936321 -0.006328635142180449 0.02220296166587826 0.024647015897138358 0.051002892741325606 -0.8864553714119532 0.22876370277609656
 -0.8867286901584863 0.22807865166358787 0.024647015897136325 0.05100289274132351 4.538250631386882e-05 0.02054678941617591 0.004190972103825275 0.0015956325839448292
 0.02471532435718862 0.050969906342707594 -0.8864553714119606 0.22876370277609906 0.004190972103827577 0.001595632583943787 0.0007961015881420419 0.019633795551072485
0.8 -0.009619452419412039 0.0034553717364951774 0.007918714944008485 0.01113397590723147 -0.8093351565649346 0.4178458964846312 0.03755309106298696 0.045325641293863066
 0.007918714944001214 0.011133975907221282 -0.011010978816924621 0.003414239961594154 0.0374976556578084 0.045385566859282356 -0.8088697095922394 0.4185035880255903
 -0.8093351565649443 0.41784589648464476 0.0374976556578115 0.04538556685928483 -0.004312241192768639 0.00023152943282038181 0.00736575245713573 0.010728659784650941
 0.03755309106298633 0.04532564129386209 -0.8088697095922293 0.41850358802558235 0.0073657524571336674 0.010728659784653819 -0.003918725194382168 -0.0011379527892008824
0.85 -0.020779454902785377 -0.009890372428559474 0.014785195464762077 0.01780218487482854 -0.6919621996502116 0.5840698489788023 0.048772501039287375 0.036733622014558216
 0.014785195464717304 0.01780218487480202 -0.02242374731981974 -0.009821618065594938 0.04874057473173019 0.03681403960854019 -0.6913016602306212 0.5846330214162477
 -0.6919621996502283 0.5840698489788656 0.04874057473174424 0.036814039608544465 -0.01577572668765445 -0.014745456705304154 0.014060765676003898 0.01748610046547104
 0.04877250103928346 0.036733622014556024 -0.6913016602305951 0.5846330214162049 0.014060765676000559 0.01748610046548659 -0.015915721118573804 -0.01644968545272718
0.9 -0.03519899174585514 -0.015755236719604077 0.023750633086174942 0.020780970252586156 -0.5415775544427704 0.7185652129353779 0.057959661569150826 0.025694584231947648
 0.023750633086078325 0.020780970252573725 -0.03710807155021479 -0.015471744850605831 0.05795830860320958 0.025784783400679787 -0.5407486491774918 0.7189646792609592
 -0.5415775544427626 0.7185652129354965 0.05795830860323468 0.025784783400679183 -0.030968187791891505 -0.022253112019674365 0.022868250392101035 0.0206019011040212
 0.0579596615691433 0.02569458423194641 -0.5407486491774776 0.7189646792608715 0.022868250392107776 0.020601901104051037 -0.03177090436969557 -0.024111298281681477
0.95 -0.049059148966184955 -0.01392602234893644 0.032998173736733936 0.01956327585896822 -0.3666376651383725 0.8153001995619154 0.06482510695000596 0.012561863929727883
 0.032998173736631164 0.019563275858997312 -0.051206521144639784 -0.013313370352053756 0.06485595992661984 0.012648529246975692 -0.36569581565364195 0.8154800050791187
 -0.3666376651383227 0.8153001995620326 0.06485595992664438 0.012648529246967117 -0.046086769717569843 -0.021950064164017444 0.03198125640839426 0.019566649769536183
 0.06482510694999827 0.012561863929729144 -0.3656958156536584 0.8154800050790241 0.03198125640841503 0.019566649769563214 -0.047618195149207065 -0.023741693052229368
1.0 -0.059000803622169404 -0.005920103032441651 0.04069067382483751 0.014493720132646002 -0.17635199999021203 0.8704994391040273 0.06901375334635051 -0.0024726679854428697
 0.04069067382483741 0.0144937201326459 -0.061319938093047 -0.004867147496105841 0.069071386504252 -0.0024028894409767 -0.17537225262041203 0.870429637219054
 -0.17635199999021203 0.870499439104027 0.06907138650425221 -0.00240288944097671 -0.057766230332989194 -0.0152245020409631 0.03957234028670921 0.014723455700406101
 0.0690137533463506 -0.0024726679854430306 -0.175372252620412 0.8704296372190541 0.0395723402867091 0.014723455700406401 -0.0600199063167871 -0.016709645577243002
1.05 -0.06297991020216535 0.0051360255190204904 0.04534241438233201 0.00676155112172112 0.01987107586107415 0.8820656580656341 0.07011395202925413 -0.018836973273316578
 0.04534241438233188 0.00676155112172175 -0.06536033126380845 0.006718206631300197 0.07019560733073694 -0.018791173969478898 0.020811493916148633 0.8817474440376495
 0.01987107586107468 0.8820656580656345 0.07019560733073726 -0.018791173969479484 -0.06389537886720308 -0.00502674347651238 0.04416666459364931 0.007255847087373396
 0.07011395202925447 -0.018836973273317365 0.020811493916126387 0.8817474440376507 0.0441666645936479 0.00725584708737315 -0.06677975889460151 -0.005976953346095505
1.1 -0.060247262583082765 0.016910625429323284 0.046234411291528256 -0.0024384326805106903 0.21220398341132124 0.8508044671131694 0.06690036782810471 -0.036151720466118295
 0.04623441129152842 -0.002438432680509908 -0.0625492423738589 0.0190889691432998 0.06699261637450027 -0.036137737205178364 0.21303173160425218 0.8502703073533004
 0.2122039834113219 0.8508044671131696 0.06699261637450045 -0.036137737205179446 -0.06361976209185942 0.0064175374931517495 0.045065741819292446 -0.0016460795454346221
 0.06690036782810459 -0.03615172046611945 0.21303173160422595 0.8502703073533107 0.04506574181929049 -0.0016460795454342984 -0.0669860752431373 0.006198530819324243
1.15 -0.051203072455469754 0.02589652565302406 0.04295792679919854 -0.011314437167962025 0.39188119905544305 0.7788181269658284 0.05890505644490929 -0.05305691352628732
 0.0429579267991997 -0.011314437167961437 -0.05325681162501042 0.028695114561607067 0.058992365131286105 -0.053074542436238215 0.3925475623222303 0.7781231653089463
 0.3918811990554436 0.7788181269658281 0.058992365131285744 -0.053074542436239366 -0.0572054668426899 0.015695777178752427 0.04187406969877281 -0.010208435672133455
 0.05890505644490863 -0.05305691352628837 0.3925475623222112 0.7781231653089618 0.041874069698771235 -0.01020843567213248 -0.06084677098832994 0.016359816408743632
1.2 -0.037942978092479936 0.029265573713711426 0.035971242681400006 -0.018024601925773983 0.5506308051394303 0.6698181986687571 0.04619697385830927 -0.06800466476564182
 0.03597124268140081 -0.018024601925774087 -0.03956419515689711 0.03265395528812848 0.04626691277736771 -0.06804580383958077 0.5511172653132405 0.6690245768119033
 0.5506308051394311 0.6698181986687568 0.04626691277736696 -0.06804580383958153 -0.046584422757224575 0.02004181784846558 0.03505755509917845 -0.01661180833157798
 0.04619697385830826 -0.06800466476564244 0.5511172653132309 0.6690245768119181 0.03505755509917765 -0.016611808331576775 -0.05024782062992926 0.02167792965664586
1.25 -0.023625735702577044 0.025567505467404165 0.02653613537927345 -0.021093384922412695 0.6809496128475946 0.5291761319363555 0.029436102579679702 -0.0795230803360323
 0.026536135379274076 -0.021093384922413038 -0.024635077056448663 0.029455492670675373 0.029483272199240466 -0.07957540126863806 0.6812647726498259 0.5283371656435653
 0.6809496128475947 0.5291761319363553 0.029483272199239772 -0.07957540126863823 -0.034729302424460526 0.018022246314052363 0.02587850854112725 -0.019405854973658508
 0.029436102579678936 -0.07952308033603227 0.6812647726498231 0.5283371656435749 0.025878508541127162 -0.019405854973657682 -0.03813632009658322 0.020641050808317987
1.3 -0.0116750960054946 0.014980237524500038 0.016467538597583736 -0.0197453602795219 0.7765112958916847 0.3638927663126708 0.009777688700947295 -0.08646970217071999
 0.016467538597583736 -0.019745360279522416 -0.011918774476661903 0.01921983243258606 0.009804037948691563 -0.0865218491208076 0.7766801479771407 0.36304134520259523
 0.7765112958916847 0.36389276631267076 0.009804037948691283 -0.08652184912080747 -0.024870076463175524 0.009777323438867069 0.016144211002797667 -0.017840621795021702
 0.00977768870094702 -0.08646970217071984 0.776680147977141 0.3630413452025991 0.016144211002797736 -0.0178406217950215 -0.027743649343360845 0.013303577075433441
1.35 -0.005041107505766401 -0.0008131075712579316 0.007760298935295796 -0.014086732049635585 0.8326472150654279 0.1823927623090246 -0.011329360862300318 -0.08818752912843798
 0.007760298935295432 -0.01408673204963545 -0.004410516032988243 0.003581501166629565 -0.011317665459159623 -0.08823255742850845 0.8326959592599275 0.1815374954852051
 0.8326472150654279 0.1823927623090246 -0.011317665459159574 -0.08823255742850841 -0.01977357253508363 -0.0031045579409333295 0.007833683883104944 -0.012044795299789763
 -0.011329360862300172 -0.08818752912843801 0.8326959592599278 0.1815374954852054 0.007833683883104915 -0.012044795299789794 -0.021866946574267257 0.0011714849540144308
1.4 -0.005622939306018332 -0.019011310118082537 0.0021729944961341664 -0.005098645340800236 0.8467899660285313 -0.005900718654794253 -0.0323643183114855 -0.08453817199556775
 0.0021729944961340866 -0.005098645340800275 -0.004070604875414185 -0.014690516824792492 -0.03236053430561365 -0.08457341297159778 0.8467312310458492 -0.0067702076581911165
 0.8467899660285313 -0.005900718654794246 -0.03236053430561346 -0.08457341297159801 -0.021184576802657947 -0.0179696382391763 0.0026834254279575667 -0.003015840448830134
 -0.032364318311485535 -0.08453817199556801 0.8467312310458481 -0.0067702076581925355 0.002683425427957454 -0.0030158404488301576 -0.022307156260012756 -0.013169787473484948
1.45 -0.013908217794212006 -0.036264214268924774 0.0008578753841566557 0.0055596540886186 0.818756197988471 -0.1911832444793844 -0.051917443168559785 -0.07585092624196502
 0.000857875384156606 0.005559654088618638 -0.011456925290955974 -0.03225620652215695 -0.05191526210108281 -0.07587609674709131 0.8185797377696962 -0.1920834287350951
 0.818756197988471 -0.1911832444793844 -0.05191526210108277 -0.07587609674709155 -0.029481171739850688 -0.031657399028824786 0.0018209210270672977 0.007578345435389106
 -0.05191744316855999 -0.07585092624196524 0.8185797377696945 -0.19208342873509637 0.0018209210270672487 0.007578345435389056 -0.029517310476002964 -0.026605553718412084
1.5 -0.028882745519343563 -0.049339445216798186 0.004123293548470029 0.015897361602793644 0.7507784372333705 -0.3639806894676191 -0.06883602149452946 -0.06282713066287898
 0.004123293548469996 0.015897361602793758 -0.025625303909382335 -0.0458689491375897 -0.068828749456157 -0.06284452377345362 0.7504507223103294 -0.3649179130231571
 0.7507784372333705 -0.3639806894676191 -0.06882874945615702 -0.06284452377345376 -0.04359597936944782 -0.04115151578575952 0.005530602111225516 0.01774481983479034
 -0.06883602149452969 -0.06282713066287887 0.750450722310328 -0.36491791302315785 0.005530602111225438 0.017744819834790287 -0.042514028101786325 -0.03613804978099558
1.55 -0.0482423934799212 -0.055765127673662776 0.011386346073215193 0.02400501790389982 0.64726586495595 -0.5158206859139772 -0.08233644692977016 -0.046379136343938775
 0.011386346073215276 0.0240050179038999 -0.04433183847666485 -0.05302075398748545 -0.08231879523829586 -0.04639551272689307 0.646738970190448 -0.516777085273816
 0.64726586495595 -0.5158206859139772 -0.08231879523829583 -0.04639551272689314 -0.06123306653588543 -0.04420375008917163 0.013207857769186624 0.025575456532423393
 -0.0823364469297701 -0.04637913634393871 0.646738970190447 -0.5167770852738166 0.013207857769186608 0.025575456532423345 -0.05908381801089053 -0.039510034791263124
1.6 -0.06887145358786488 -0.0543049613467631 0.02131925930215625 0.028430482570355367 0.5143523246525485 -0.6397425920174536 -0.09199572843639275 -0.027400302126253377
 0.02131925930215631 0.028430482570355412 -0.06450442652834468 -0.05242400856980927 -0.09196776871262492 -0.0274252435427231 0.5135793888002855 -0.6406688296507398
 0.5143523246525485 -0.6397425920174536 -0.09196776871262477 -0.027425243542723212 -0.07934413009244674 -0.03979041097348723 0.02350378675837299 0.029620310977985245
 -0.09199572843639273 -0.02740030212625342 0.5135793888002852 -0.6406688296507405 0.02350378675837295 0.02962031097798516 -0.07625006616005803 -0.035665302264957566
1.65 -0.08747156486997448 -0.045156322208921455 0.032136835373963904 0.028433479622988464 0.3593427063104987 -0.7305809458451828 -0.09756171289304742 -0.0066150474711040115
 0.03213683537396388 0.028433479622988478 -0.08286937030351228 -0.04421787566289205 -0.09752919114741077 -0.006656372355895567 0.3582953044747136 -0.7313980159860688
 0.3593427063104987 -0.7305809458451828 -0.09752919114741063 -0.006656372355895607 -0.09474943742932743 -0.02829515983548121 0.0346092831599641 0.02914225970414963
 -0.09756171289304733 -0.006615047471104115 0.3582953044747139 -0.7313980159860701 0.03460928315996407 0.02914225970414959 -0.09088803316358707 -0.024938385778309504
1.7 -0.10118503681911659 -0.029845526855896146 0.04194288382789495 0.024081765366294073 0.19017660244811288 -0.7850300413065123 -0.0987388147941283 0.015349097453970095
 0.04194288382789495 0.024081765366294073 -0.09657646135904117 -0.02987055967256562 -0.09871038406327166 0.015287398650747644 0.18885921577642983 -0.7856395725317421
 0.19017660244811288 -0.7850300413065123 -0.09871038406327162 0.015287398650747484 -0.10475006939783027 -0.011393871400179029 0.044598953745619285 0.02421657800120753
 -0.09873881479412838 0.015349097453970053 0.18885921577642956 -0.7856395725317427 0.04459895374561927 0.02421657800120751 -0.10033493529065338 -0.0089469348122601
1.75 -0.10807903387456219 -0.010880270562168948 0.049060605656552084 0.01619988318668189 0.01499377418458861 -0.8015553898572836 -0.09514127237277512 0.03776512731635957
 0.04906060565655208 0.016199883186681877 -0.10368696390425798 -0.01183579133079211 -0.09512676954462002 0.03768280414876969 0.013451841495921765 -0.8018557073745987
 0.01499377418458861 -0.8015553898572836 -0.09512676954461995 0.03768280414876962 -0.10760062528609475 0.008298756887493573 0.05176208041448473 0.015685067072003407
 -0.09514127237277513 0.037765127316359545 0.013451841495921556 -0.8018557073745991 0.05176208041448478 0.015685067072003418 -0.1028633566509041 0.009755387355600866
1.8 -0.10742019775279987 0.008735572199868334 0.05230050096349113 0.00620668531344741 -0.1581704670464345 -0.7802421687146144 -0.08640755456720406 0.05966065172374864
 0.052300500963491085 0.006206685313447347 -0.10345183505142762 0.0069311595346597515 -0.08641705374195795 0.05956146699071321 -0.1598504963954078 -0.7801463964842744
 -0.1581704670464345 -0.7802421687146144 -0.08641705374195792 0.059561466990713206 -0.10277354627018011 0.02771721071426863 0.05487499097001042 0.0049984904522666195
 -0.08640755456720403 0.059660651723748626 -0.15985049639540844 -0.7801463964842745 0.054874990970010515 0.004998490452266633 -0.09794756996636725 0.028162499811247153
1.85 -0.09973081871481257 0.026022477269370393 0.051145723633763004 -0.004122130990480837 -0.32158640910453584 -0.7226590506887899 -0.07237883419459998 0.07978230120457783
 0.051145723633762914 -0.004122130990480877 -0.096369976702478 0.02349434183154562 -0.07242107721655106 0.07967433152251005 -0.32328478037817426 -0.7221116002289591
 -0.32158640910453584 -0.7226590506887899 -0.07242107721655097 0.07967433152251005 -0.09100632732509316 0.043867219589629185 0.05339398114742765 -0.006018768301729659
 -0.07237883419459995 0.0797823012045778 -0.32328478037817493 -0.7221116002289595 0.05339398114742773 -0.006018768301729665 -0.08631279106204351 0.043334943956656255
1.9 -0.08665127372288618 0.03850593423731414 0.04584451534363982 -0.01294069226283446 -0.46798908230240127 -0.631778283674508 -0.05328053675787742 0.09666516213814778
 0.0458445153436397 -0.012940692262834431 -0.08405110323323038 0.035418154408707776 -0.05336108360296773 0.09656015187349787 -0.4695666022877828 -0.6307667719414393
 -0.46798908230240127 -0.631778283674508 -0.05336108360296769 0.09656015187349794 -0.0741554230817063 0.05430777329223741 0.04755653096782483 -0.015457570669471815
 -0.0532805367578775 0.0966651621381478 -0.4695666022877827 -0.6307667719414394 0.0475565309678249 -0.015457570669471801 -0.06979083619235632 0.05287930322447095
1.95 -0.07064145698342097 0.044604957368460985 0.03739465159003215 -0.018646091620126926 -0.5907640033875098 -0.5119448007750436 -0.029864194088505564 0.10880276375195415
 0.037394651590032024 -0.018646091620126815 -0.06891665618128623 0.04115522133889959 -0.029984167527801874 0.10871464492055774 -0.5920795889424352 -0.5105054160130998
 -0.5907640033875098 -0.5119448007750436 -0.0299841675278018 0.1087146449205578 -0.05488825752037135 0.0575408327186939 0.038373282399345496 -0.021644064901111065
 -0.029864194088505644 0.10880276375195429 -0.5920795889424352 -0.5105054160130997 0.03837328239934562 -0.021644064901111034 -0.051014111131903885 0.055335070782941066
2.0 -0.054556044525608 0.043883068460321896 0.02740056273960623 -0.020182020798914766 -0.6842069460876513 -0.3688441286305713 -0.0034529819523115447 0.11489926840640291
 0.027400562739606216 -0.02018202079891454 -0.0537746639992308 0.040295392049615644 -0.0036086250196187076 0.11484255396422083 -0.6851358682145213 -0.36705959051371573
 -0.6842069460876513 -0.3688441286305713 -0.0036086250196186434 0.11484255396422094 -0.036247181524461686 0.05326231355121082 0.027488932117797477 -0.023453967451439406
 -0.0034529819523113348 0.11489926840640302 -0.6851358682145215 -0.36705959051371595 0.027488932117797647 -0.023453967451439302 -0.03298264386727228 0.050422645471700486
2.05 -0.041142418134247266 0.03711602264222176 0.017797146228866013 -0.017273899764961544 -0.7438618653104973 -0.20939526902423383 0.024160598455415128 0.11414089572014618
 0.017797146228866093 -0.017273899764961364 -0.04131836884071364 0.03363047808311439 0.023977996368288984 0.11412934667831834 -0.7443115902847655 -0.20738579777887597
 -0.7438618653104973 -0.20939526902423383 0.023977996368288984 0.11412934667831837 -0.021134134348965283 0.0424268575965442 0.016904228522571053 -0.02055976434435318
 0.024160598455415502 0.11414089572014634 -0.7443115902847655 -0.2073857977788759 0.016904228522571278 -0.020559764344353196 -0.018553471284976798 0.039105866418907
2.1 -0.03253787507417349 0.02614223307679061 0.01047186283806761 -0.010524016741559745 -0.7668891343075956 -0.04150149308321645 0.05096485416921305 0.10638639816416652
 0.010471862838067817 -0.010524016741559696 -0.033625851306653354 0.023001560132994543 0.050769102087873975 0.10643168828425995 -0.7668100907369071 -0.039410515893423294
 -0.7668891343075956 -0.04150149308321645 0.05076910208787397 0.10643168828425992 -0.011793861447846402 0.027090542554435066 0.008590386857593928 -0.013536103663266153
 0.05096485416921333 0.10638639816416655 -0.7668100907369075 -0.03941051589342275 0.008590386857594078 -0.013536103663266224 -0.009929957988925934 0.02343450448703209
2.15 -0.029867975062246303 0.013499376235602928 0.006864721712055986 -0.0013147816512621736 -0.7523756853563256 0.1263684451596443 0.07505083951496767 0.0921920798246749
 0.00686472171205621 -0.0013147816512621556 -0.0317624583258139 0.01093346596866532 0.0748608679457709 0.09230189830752299 -0.7517653540935654 0.12839106699166764
 -0.7523756853563256 0.1263684451596443 0.07486086794577088 0.09230189830752296 -0.009400017640174885 0.010034018807864132 0.00407728479014604 -0.0037684676078863096
 0.07505083951496788 0.09219207982467453 -0.7517653540935653 0.12839106699166822 0.0040772847901461825 -0.003768467607886516 -0.008254164549492193 0.00617015372090308
2.2 -0.033046140781647075 0.0019087834536745895 0.007653921449453397 0.008476508502538397 -0.7014900320957236 0.28573547076337635 0.09488641990808246 0.07266121268479137